[Molden Format]
[Molpro variables]
_NUMVAR=  776.0000000000000    
_AVOGAD= 0.6022136736000000E+24
_BOLTZ= 0.1380658000000000E-22
_CLIGHT=  29979245800.00000    
_EV2006= 0.3674930886769165E-01
_EV= 0.3674932534394180E-01
_ENULL= 0.8854187817000000E-11
_KJOULE= 0.3808798324128737E-03
_KJOULE/MOL= 0.3808798324128737E-03
_CM= 0.4556335267302901E-05
_CM-1= 0.4556335267302901E-05
_DEB2SI= 0.3335641000000000E-29
_AMU2AU=  1822.888390000000    
_KCAL= 0.1593601117815568E-02
_KCAL/MOL= 0.1593601117815568E-02
_KELVIN2006= 0.3166828861084835E-05
_KELVIN= 0.3166814820820034E-05
_JOULE= 0.4359748200000000E-17
_HERTZ2006= 0.1519829850815779E-15
_HERTZ= 0.1519829846011223E-15
_HZ2006= 0.1519829850815779E-15
_HZ= 0.1519829846011223E-15
_JPCAL=  4.184000000000000    
_PLANCK= 0.6626075540000000E-33
_TOA2006= 0.5291772490000000    
_TOA= 0.5291772090000000    
_TOANG2006= 0.5291772490000000    
_TOANG= 0.5291772090000000    
_TORAD= 0.1745329251994330E-01
_TOCM=  219474.6306700000    
_TODEBYE=  2.541580000000000    
_TOEV2006=  27.21139610000000    
_TOE= 0.4803242000000000E-09
_TOEV=  27.21138390000000    
_TOHERTZ2006=  6579683899900000.    
_TOHERTZ=  6579683920700000.    
_TOHZ2006=  6579683899900000.    
_TOHZ=  6579683920700000.    
_TOK2006=  315773.3000000000    
_TOK=  315774.7000000000    
_TOKCAL=  627.5096000000000    
_TOKELVIN2006=  315773.3000000000    
_TOKELVIN=  315774.7000000000    
_TOKJ=  2625.500000000000    
_TOKJOULE=  2625.500000000000    
_TOKG= 0.1660565586000000E-26
_ANG2006=  1.889725988578923    
_ANG=  1.889726131421507    
_ANGSTROM2006=  1.889725988578923    
_ANGSTROM=  1.889726131421507    
_RPAREF=  0.000000000000000    
_RPADISS=  0.000000000000000    
_IGNORE_UNDEF=  2.000000000000000    
_STRICTCHECK=  0.000000000000000    
_SEW_ONEEL=  0.000000000000000    
_CPPDONE=FALSE
_DKROLL_DONE=  0.000000000000000    
_FOCKDONE=TRUE
_GRADONE=FALSE
_HESSDONE=FALSE
_INTDONE=TRUE
_SCFDONE=TRUE
_MODUL_CUDA=FALSE
_MODUL_SLATER=FALSE
_MODUL_MRCC=FALSE
_MODUL_NBO6=FALSE
_MODUL_NECI=TRUE
_MRCC_EXEC=
_FITC_AO_SAVED=FALSE
_FITC_MO_SAVED=FALSE
_SHARED_FS=TRUE
_LSTYP=SEWARD
_INTYP=INTS
_GEOMTYP=ZMAT
_GRADTYP=ALASKA
_DIRECT=FALSE
_DKROLL=FALSE
_DKHO= -1.000000000000000    
_DKHP= -1.000000000000000    
_SYNCM=  0.000000000000000    
_DFTNAME=  0.000000000000000    
_DFTFUNC=  0.000000000000000    
_BASIS=CC-PVDZ
_BASISSETS=
_ZSIGNX=
_ZSIGNY=
_ZSIGNZ=
_ZCENTRE=
_ZSYMEL=
_ZPLANE=
_ZUNIT=ANG
_ZORIENT=  1.000000000000000    
_CHARGE=  1.000000000000000    
_SCFCHARGE=  1.000000000000000    
_MCCHARGE=  1.000000000000000    
_CICHARGE=  1.000000000000000    
_CCCHARGE=  1.000000000000000    
_NELEC=  16.00000000000000    
!NELEC=  16.00000000000000    
_SCFNELEC=  16.00000000000000    
_MCNELEC=  16.00000000000000    
_CINELEC=  16.00000000000000    
_CCNELEC=  16.00000000000000    
_SPIN=  16.00000000000000    
!SPIN=  0.000000000000000    
_SCFSPIN=  0.000000000000000    
_MCSPIN=  0.000000000000000    
_CISPIN=  0.000000000000000    
_CCSPIN=  0.000000000000000    
_STATE=  0.000000000000000    
_SCFSTATE=  0.000000000000000    
_MCSTATE=  0.000000000000000    
_CISTATE=  0.000000000000000    
_SYMMETRY=  0.000000000000000    
!SYMMETRY=  0.000000000000000    
_SCFSYMMETRY=  0.000000000000000    
_MCSYMMETRY=  0.000000000000000    
_CISYMMETRY=  0.000000000000000    
_CCSYMMETRY=  0.000000000000000    
_SCFSYMM=  0.000000000000000    
_MCSYMM=  0.000000000000000    
_CISYMM=  0.000000000000000    
_CCSYMM=  0.000000000000000    
_SCFSYM=  0.000000000000000    
_MCSYM=  0.000000000000000    
_CISYM=  0.000000000000000    
_CCSYM=  0.000000000000000    
_WEIGHT=  0.000000000000000    
_MCWEIGHT=  0.000000000000000    
_LQUANT=  0.000000000000000    
_MCLQUANT=  0.000000000000000    
_OPTCONV=  0.000000000000000    
_QSDSTEP=  0.000000000000000    
_QSDIRC=  0.000000000000000    
_PROGRAM=RHF-SCF
_CPUSTEP= 0.3999999999999998E-01
_SYSSTEP= 0.1000000000000000E-01
_WALLSTEP= 0.5000000000000000E-01
!PERT= 0.5000000000000000E-01
!DFMP2= 0.5000000000000000E-01
!DFSCF=  0.000000000000000    
!DFHFENERG=  0.000000000000000    
!SCSGRD=  0.000000000000000    
_ATCHARGE=  0.000000000000000    
_BASINP=  610.0000000000000    
_CARTESIAN=TRUE
_CFIT=TRUE
_CFIT_FRED=TRUE
_CFIT_FRED_THR=TRUE
_CHII2=TRUE
_CHIRS=TRUE
_COEFF=TRUE
_CPU2IDX_CFIT=TRUE
_CPU3IDX_CFIT=TRUE
_CPUASMBL_CFIT=TRUE
_CPUBLAS1=TRUE
_CPUBLAS2=TRUE
_CPUBLAS3=TRUE
_CPUINT_DTRAF=TRUE
_CPUSOLVE_CFIT=TRUE
_CPUTOT= 0.2100000000000000    
_CPUTR1_CFIT= 0.2100000000000000    
_CPUTR2_CFIT= 0.2100000000000000    
_CPUINV_CFIT= 0.2100000000000000    
_CPUFIT_CFIT= 0.2100000000000000    
_CPUTRANS_CFIT= 0.2100000000000000    
_CPUSCREEN_CFIT= 0.2100000000000000    
_CPUTRANS_DTRAF= 0.2100000000000000    
_CPUTRA_DTRAF= 0.2100000000000000    
_CPUTRIPL= 0.2100000000000000    
_SYSTRIPL= 0.2100000000000000    
_WALLTRIPL= 0.2100000000000000    
_CPUCCSD= 0.2100000000000000    
_SYSCCSD= 0.2100000000000000    
_WALLCCSD= 0.2100000000000000    
_CPUSORT= 0.1999999999999999E-01
_SYSSORT= 0.1000000000000000E-01
_WALLSORT= 0.3000000026077032E-01
_CPUF12= 0.3000000026077032E-01
_SYSF12= 0.3000000026077032E-01
_WALLF12= 0.3000000026077032E-01
_CPUF12B= 0.3000000026077032E-01
_SYSF12B= 0.3000000026077032E-01
_WALLF12B= 0.3000000026077032E-01
_CPUTRANS= 0.3000000026077032E-01
_SYSTRANS= 0.3000000026077032E-01
_WALLTRANS= 0.3000000026077032E-01
_CPU2EXT= 0.3000000026077032E-01
_CPU3EXT= 0.3000000026077032E-01
_CPU4EXT= 0.3000000026077032E-01
_WALL2EXT= 0.3000000026077032E-01
_WALL3EXT= 0.3000000026077032E-01
_WALL4EXT= 0.3000000026077032E-01
_DALTON= 0.3000000026077032E-01
_DARW= 0.3000000026077032E-01
_DECAY= 0.3000000026077032E-01
_DELE_CFIT= 0.3000000026077032E-01
_DELG_CFIT= 0.3000000026077032E-01
_DELTA= 0.3000000026077032E-01
_DFTEXFAC=  1.000000000000000    
_DFTFAC=  1.000000000000000    
_DFTFUN=  1.000000000000000    
_DFTFUNS=  1.000000000000000    
_DMEX=  1.000000000000000    
_DMEY=  1.000000000000000    
_DMEZ=  1.000000000000000    
_DMNX=  1.000000000000000    
_DMNY=  1.000000000000000    
_DMNZ=  1.000000000000000    
_DMSCF=  1.000000000000000    
_DMSCF_Efield=  1.000000000000000    
_DMSCF_I=  1.000000000000000    
_DMSCF_J=  1.000000000000000    
_DMSCF_K=  1.000000000000000    
_DMSCF_N1=  1.000000000000000    
_DMSCF_N2=  1.000000000000000    
_DMSCF_NUC=  1.000000000000000    
_DMSCF_T=  1.000000000000000    
_DMSCF_V=  1.000000000000000    
_DMX= -1.098119954627563    
_DMY=-0.1361708612940049E-01
_DMZ=-0.2697572448081691E-14
_DMX_SCF= -1.098119954627563    
_DMY_SCF=-0.1361708612940049E-01
_DMZ_SCF=-0.2697572448081691E-14
_DMZCOR=-0.2697572448081691E-14
_DM_RHO1=-0.2697572448081691E-14
_DM_RVAL=-0.2697572448081691E-14
_DUMMYATOMS=-0.2697572448081691E-14
_FREQUENCIES=-0.2697572448081691E-14
_EDISP=-0.2697572448081691E-14
_EEDISP=-0.2697572448081691E-14
_EINTRA=-0.2697572448081691E-14
_EINTRA_R12=-0.2697572448081691E-14
_EINTER_R12=-0.2697572448081691E-14
_EHOMO=-0.4384749936736317    
_EIONIC=-0.4384749936736317    
_ELUMO= 0.1296237951043868    
_EMP2= 0.1296237951043868    
_EMP2_SING= 0.1296237951043868    
_EMP2_TRIP= 0.1296237951043868    
_EMP2_SINGLES= 0.1296237951043868    
_EMP2_SINGLES_D= 0.1296237951043868    
_EMP2_SCS= 0.1296237951043868    
_EMP2_STRONG= 0.1296237951043868    
_EMP2_CLOSE= 0.1296237951043868    
_EMP2_WEAK= 0.1296237951043868    
_EMP2_DIST= 0.1296237951043868    
_ECSING= 0.1296237951043868    
_ECTRIP= 0.1296237951043868    
_ECSINGLES= 0.1296237951043868    
_EF12= 0.1296237951043868    
_EF12_SING= 0.1296237951043868    
_EF12_TRIP= 0.1296237951043868    
_ECSING_F12= 0.1296237951043868    
_ECTRIP_F12= 0.1296237951043868    
_EF12_RHFRELAX= 0.1296237951043868    
_EF12_RHFRELAX_C= 0.1296237951043868    
_EF12_CONVSUPPRS= 0.1296237951043868    
_EF12_CONVSUPPRT= 0.1296237951043868    
_EF12_SINGLES= 0.1296237951043868    
_EF12_SINGLES_C= 0.1296237951043868    
_EF12_SCS= 0.1296237951043868    
_EF12_STRONG= 0.1296237951043868    
_EF12_CLOSE= 0.1296237951043868    
_EF12_WEAK= 0.1296237951043868    
_EF12_DIST= 0.1296237951043868    
_EF12S= 0.1296237951043868    
_EF12S_SING= 0.1296237951043868    
_EF12S_TRIP= 0.1296237951043868    
_EF12S_SCS= 0.1296237951043868    
_EF12S_STRONG= 0.1296237951043868    
_EF12S_CLOSE= 0.1296237951043868    
_EF12S_WEAK= 0.1296237951043868    
_EF12S_DIST= 0.1296237951043868    
_EF12D= 0.1296237951043868    
_EF12D_SING= 0.1296237951043868    
_EF12D_TRIP= 0.1296237951043868    
_EF12D_SCS= 0.1296237951043868    
_EF12D_STRONG= 0.1296237951043868    
_EF12D_CLOSE= 0.1296237951043868    
_EF12D_WEAK= 0.1296237951043868    
_EF12D_DIST= 0.1296237951043868    
_EF12F= 0.1296237951043868    
_EF12F_SING= 0.1296237951043868    
_EF12F_TRIP= 0.1296237951043868    
_EF12F_SCS= 0.1296237951043868    
_EF12F_STRONG= 0.1296237951043868    
_EF12F_CLOSE= 0.1296237951043868    
_EF12F_WEAK= 0.1296237951043868    
_EF12F_DIST= 0.1296237951043868    
_EMP2R12_2AD= 0.1296237951043868    
_EMP2R12_2A= 0.1296237951043868    
_EMP2R12_2AP= 0.1296237951043868    
_EMP2R12_2SAD= 0.1296237951043868    
_EMP2R12_2SA= 0.1296237951043868    
_EMP2R12_2SAP= 0.1296237951043868    
_EMP2R12_2B= 0.1296237951043868    
_EMP2_R12= 0.1296237951043868    
_EMP2_R12_A= 0.1296237951043868    
_EMP2_R12_AP= 0.1296237951043868    
_EMP2_R12_AD= 0.1296237951043868    
_EMP2_R12_2A= 0.1296237951043868    
_EMP2_R12_2SA= 0.1296237951043868    
_EMP2_R12_2SAP= 0.1296237951043868    
_EMP2_R12_2SAD= 0.1296237951043868    
_EMP2_R12_2AP= 0.1296237951043868    
_EMP2_R12_DIAG= 0.1296237951043868    
_EMP2_R12_STRONG= 0.1296237951043868    
_EMP2_R12_CLOSE= 0.1296237951043868    
_EMP2_R12_WEAK= 0.1296237951043868    
_EMP2_R12_DIST= 0.1296237951043868    
_EMP2_R12_SING= 0.1296237951043868    
_EMP2_R12_TRIP= 0.1296237951043868    
_EMP2_R12_SCS= 0.1296237951043868    
_EMP2R= 0.1296237951043868    
_EMP3= 0.1296237951043868    
_EMP3R= 0.1296237951043868    
_EMP4= 0.1296237951043868    
_ENERGC= 0.1296237951043868    
_ENERGCL= 0.1296237951043868    
_ENERG_CC= 0.1296237951043868    
_ENERG_CV= 0.1296237951043868    
_ENERG_VV= 0.1296237951043868    
_ENERGD= 0.1296237951043868    
_ENERGD0= 0.1296237951043868    
_ENERGD1= 0.1296237951043868    
_ENERGD2= 0.1296237951043868    
_ENERGD3= 0.1296237951043868    
_ENERGD4= 0.1296237951043868    
_ENERGP= 0.1296237951043868    
_ENERGP0= 0.1296237951043868    
_ENERGP1= 0.1296237951043868    
_ENERGP2= 0.1296237951043868    
_ENERGP3= 0.1296237951043868    
_ENERGP4= 0.1296237951043868    
_ENERGR= 0.1296237951043868    
_ENERGRR= 0.1296237951043868    
_ENERGS= 0.1296237951043868    
_ENERGT= 0.1296237951043868    
_ENERGU= 0.1296237951043868    
_ENERGW= 0.1296237951043868    
_ENERGY= -113.8743656426822    
_ECORR= -113.8743656426822    
_ECORR_SZABO= -113.8743656426822    
_ECORR_TILDE= -113.8743656426822    
_ECORR_ACFDT= -113.8743656426822    
_ECORR_ACFDX= -113.8743656426822    
_ECORR_DBAR= -113.8743656426822    
_ECORR_DBAX= -113.8743656426822    
_ECORR_RCCD= -113.8743656426822    
_ECORR_DRCCD= -113.8743656426822    
_ECORR_SOSEX= -113.8743656426822    
_ECORR_PLASM= -113.8743656426822    
_ECORR_LOGM= -113.8743656426822    
_ECORR_LSOX= -113.8743656426822    
_ECORR_LRPA= -113.8743656426822    
_ENERGY_MP= -113.8743656426822    
_ECBS= -113.8743656426822    
_ECBSD= -113.8743656426822    
_ENUC=  30.94404889849992    
_EPDIST=  30.94404889849992    
_EPDIST_SING=  30.94404889849992    
_EPDIST_TRIP=  30.94404889849992    
_EPDIST_R12=  30.94404889849992    
_EPDIST_SING_R12=  30.94404889849992    
_EPDIST_TRIP_R12=  30.94404889849992    
_EPSUM=  30.94404889849992    
_EPSUM_R12=  30.94404889849992    
_EPS1= -20.57804964917023    
_EPS2= -20.57804964917023    
_EPS3= -20.57804964917023    
_EPS4= -20.57804964917023    
_EPS5= -20.57804964917023    
_EPS6= -20.57804964917023    
_EPS7= -20.57804964917023    
_EPS8= -20.57804964917023    
_EREL= -20.57804964917023    
_FLOPBLAS1= -20.57804964917023    
_FLOPBLAS2= -20.57804964917023    
_FLOPBLAS3= -20.57804964917023    
_FLOPDGM= -20.57804964917023    
_FLOPDGV= -20.57804964917023    
_FLOPMXM= -20.57804964917023    
_FLOPMXV= -20.57804964917023    
_FREQSTEP= -20.57804964917023    
!RS2GRSTATE= -20.57804964917023    
!RS2GRSYM= -20.57804964917023    
_GRADENERG= -20.57804964917023    
_GRADEXFAC=  9999.000000000000    
_GRADMETHOD=  1.000000000000000    
_NMRMETHOD=  0.000000000000000    
_GRADRECORD=  0.000000000000000    
_VIRIAL=  0.000000000000000    
_GRADX=  0.000000000000000    
_GRADY=  0.000000000000000    
_GRADZ=  0.000000000000000    
_GRADVAR=  0.000000000000000    
_GRID=  0.000000000000000    
_GRID_FREEZE=  0.000000000000000    
!GRID_FREEZE= -1.000000000000000    
!GRIDREC= -1.000000000000000    
_GRID_WEIGHT_CUT= -1.000000000000000    
_GRID_BLOCKSIZE= -1.000000000000000    
_GRID_SPARSITY= -1.000000000000000    
_GRID_RMAX= -1.000000000000000    
_GTOTAL= -1.000000000000000    
_HDIA= -1.000000000000000    
_HDIACI= -1.000000000000000    
_HEAT= -1.000000000000000    
_HTOTAL= -1.000000000000000    
_INCR_CORR= -1.000000000000000    
_INCR_COUNT= -1.000000000000000    
_INCR_READY= -1.000000000000000    
_ISCHI= -1.000000000000000    
_ITERATIONS=  10.00000000000000    
!INTCACHE=  10.00000000000000    
_KFIT=  10.00000000000000    
_LASTNELEC=  16.00000000000000    
_LASTSPIN=  0.000000000000000    
_LASTSYM=  1.000000000000000    
_LL=  1.000000000000000    
_MASSV=  1.000000000000000    
_MIN_ITER=  1.000000000000000    
_MIXANG=  1.000000000000000    
_MIXANGCI=  1.000000000000000    
_MPP_PROG=  0.000000000000000    
_MSENERGY=  0.000000000000000    
_NACME=  0.000000000000000    
_NBAS_CFIT=  0.000000000000000    
_NEWREC=  0.000000000000000    
_NGRID=  0.000000000000000    
_NPROC_MPP=  1.000000000000000    
_NPROC_MPPX=  1.000000000000000    
_NPROC_SMP=  1.000000000000000    
_NUMSTEP=  0.000000000000000    
_OPNUC=  0.000000000000000    
_OPTCONVMX=  0.000000000000000    
_OPTCONVRMS=  0.000000000000000    
_OPTGRAD=  0.000000000000000    
_OPTGRADMX=  0.000000000000000    
_OPTGRADRMS=  0.000000000000000    
_OPTRMSMAX=  0.000000000000000    
_OPTSTEP=  0.000000000000000    
_ORBITAL=  2100.200000000000    
_PAOINT_CFIT=  2100.200000000000    
_PENALTY=  2100.200000000000    
_PH1INT_CFIT=  2100.200000000000    
_PH1VEC_CFIT=  2100.200000000000    
_PH2INT_CFIT=  2100.200000000000    
_PHASE=  2100.200000000000    
_PI=  3.141592653589793    
_PMOINT_CFIT=  3.141592653589793    
_PMOVEC_CFIT=  3.141592653589793    
_POISSON_ECORR=  3.141592653589793    
_POISSON_ERROR=  3.141592653589793    
_POLXX=  3.141592653589793    
_POLXY=  3.141592653589793    
_POLXZ=  3.141592653589793    
_POLYY=  3.141592653589793    
_POLYZ=  3.141592653589793    
_POLZZ=  3.141592653589793    
_POLYX=  3.141592653589793    
_POLZX=  3.141592653589793    
_POLZY=  3.141592653589793    
_POVINT_CFIT=  3.141592653589793    
_ROOT=  3.141592653589793    
_RPDIST=  3.141592653589793    
_RPMIN=  3.141592653589793    
_RPMAX=  3.141592653589793    
_EPCON=  3.141592653589793    
_ECDIAG=  3.141592653589793    
_EPDIAG=  3.141592653589793    
!MCACT=  3.141592653589793    
!MCCLOSED=  3.141592653589793    
!MCFREEZE=  3.141592653589793    
!MCMS2=  3.141592653589793    
!MCNEL=  3.141592653589793    
!MCNSTSYM=  3.141592653589793    
!MCSTATE=  3.141592653589793    
!MCSYM=  3.141592653589793    
!MCWEIGHT=  3.141592653589793    
_SEIG_MIN= 0.1216726049420475E-01
_SEWPROP=TRUE
_SMAT=TRUE
_SMATCI=TRUE
_SSQUARED=TRUE
_STATUS=  1.000000000000000    
_SYSBLAS1=  1.000000000000000    
_SYSBLAS2=  1.000000000000000    
_SYSBLAS3=  1.000000000000000    
_SYSTEM_RC=  1.000000000000000    
_SYSTOT= 0.5000000000000000E-01
_T1DIAG= 0.5000000000000000E-01
_D1DIAG= 0.5000000000000000E-01
_TASK= 0.5000000000000000E-01
_TROV= 0.5000000000000000E-01
_HMAT= 0.5000000000000000E-01
_UMAT= 0.5000000000000000E-01
_UMATCI= 0.5000000000000000E-01
_VERSION=  2012001.000000000    
_WALLBLAS1=  2012001.000000000    
_WALLBLAS2=  2012001.000000000    
_WALLBLAS3=  2012001.000000000    
_WALLTOT= 0.2800000000000000    
_ZPE= 0.2800000000000000    
!DFBASIS_COUL= 0.2800000000000000    
!DFBASIS_EXCH= 0.2800000000000000    
!DFBASIS_MP2= 0.2800000000000000    
!DFBASIS_MC= 0.2800000000000000    
!DFBASIS_F12K= 0.2800000000000000    
!DFBASIS_CCSD= 0.2800000000000000    
!RIBASIS_MP2= 0.2800000000000000    
!RIBASIS_EXCH= 0.2800000000000000    
_DATE=14-Jul-14
_LASTORB=RHF
_MACHINE=Linux-2.6.32-431.20.3.el6.x86_64/tiger1(x86_64) 64 bit serial version
_METHODC=
_METHODT=
_OUTPUT=/home/fjricci/molpro/acetone.xml
_PGROUP=C1
_SEMI=
_TIME=13:58:00
_ANSATZ=
_LIBMOL=/home/EAC/molpro2012.1.binary/molpro-serial/lib/
_VDIAG=
_UDIAG=
!AOINTADDSC=
_TRANSFORM_FORCE=
_SOLVE_ITER=
_VSCF_FREQ=
_VMCSCF_FREQ=
_VCI_FREQ=
_VMP2_FREQ=
_VSCF_INTENS=
_VMCSCF_INTENS=
_VCI_INTENS=
_VMP2_INTENS=
_VIB_PROG=
!EREF=
!VIBCNT=  0.000000000000000    
!RGHFCNT=  0.000000000000000    
!SURFREC=  0.000000000000000    
!POLYREC=  0.000000000000000    
!DIPREC=  0.000000000000000    
!VSCFREC=  0.000000000000000    
!VCIREC=  0.000000000000000    
!PVCIREC=  0.000000000000000    
!VMP2REC=  0.000000000000000    
!VMCSCFREC=  0.000000000000000    
!VMRCIREC=  0.000000000000000    
!VIBINFO=  0.000000000000000    
!GAREC=  0.000000000000000    
!SCFORB=  21002.00000000000    
!MCORB=  21002.00000000000    
!CIOCC=  21002.00000000000    
!CICORE=  21002.00000000000    
!CICLOS=  21002.00000000000    
!UNO_OCC=  21002.00000000000    
!UNO_CLOSED=  21002.00000000000    
!CINSTSYM=  21002.00000000000    
!CIISTSYM=  21002.00000000000    
!CIISTMS2=  21002.00000000000    
!CIISTNEL=  21002.00000000000    
!CIMS2=  21002.00000000000    
!NEWMOL= -1.000000000000000    
!NEWSYM= -1.000000000000000    
!NEWORIENT= -1.000000000000000    
_SLFILES=slscratch
_NGSSTO=  9.000000000000000    
_SIN=SIN
_COS=COS
_TAN=TAN
_ACOS=ACOS
_ASIN=ASIN
_ATAN=ATAN
_COSH=COSH
_SINH=SINH
_TANH=TANH
_ABS=ABS
_MOD=MOD
_ERF=ERF
_REFC=REFC
_ERFC=ERFC
_HYPOT=HYPOT
_J0=J0
_J1=J1
_JN=JN
_GAMMA=GAMMA
_LGAMMA=LGAMMA
_Y0=Y0
_Y1=Y1
_YN=YN
_EXP=EXP
_LOG=LOG
_LOG10=LOG10
_SQRT=SQRT
_INT=INT
_NINT=NINT
_MAX=MAX
_MIN=MIN
_COSMO=  0.000000000000000    
_COSMOIT=  0.000000000000000    
_COSMOES=  0.000000000000000    
_COSMOEDS=  0.000000000000000    
_COSMOEC=  0.000000000000000    
_COSMOEDCORR=  0.000000000000000    
_FEPSI=  1.000000000000000    
_SL_IsMM=  0.000000000000000    
_SL_NSYM=  1.000000000000000    
_SL_System_BitSw=  0.000000000000000    
_SL_Unique_atoms=  0.000000000000000    
_SL_Last_energy=  0.000000000000000    
_SL_GRAD=  0.000000000000000    
_SL_MAXUPD_Hess=  5.000000000000000    
_SL_N_PRINT_COD=  5.000000000000000    
_SL_PRINT_CODES=  0.000000000000000    
_SL_BasType=  0.000000000000000    
_SL_Energy_Pred=  0.000000000000000    
_SL_New_Coords=  0.000000000000000    
_SL_Total_Nuclea=  0.000000000000000    
_SL_Highest_Mltp=  0.000000000000000    
_SL_Ref_Geom=  0.000000000000000    
_SL_Symmetry_ope=  1.000000000000000    
_SL_agrad=  0.000000000000000    
_SL_GrdMax=  0.000000000000000    
_SL_GrdNorm=  0.000000000000000    
_SL_GrdRMS=  0.000000000000000    
_CONFIG=  0.000000000000000    
_OCC=  0.000000000000000    
_CORE=  0.000000000000000    
_CLOSED=  0.000000000000000    
_SCFOCC=  0.000000000000000    
_SCFCLOSED=  0.000000000000000    
_SCFCORE=  0.000000000000000    
_MCOCC=  0.000000000000000    
_MCCLOSED=  0.000000000000000    
_MCFROZEN=  0.000000000000000    
_MCCORE=  0.000000000000000    
_CIOCC=  0.000000000000000    
_CICLOSED=  0.000000000000000    
_CICORE=  0.000000000000000    
_CCOCC=  0.000000000000000    
_CCCLOSED=  0.000000000000000    
_CCCORE=  0.000000000000000    
_SRXC=  0.000000000000000    
_SRC=  0.000000000000000    
_SRX=  0.000000000000000    
_SRH=  0.000000000000000    
_E_EXCHANGE=  0.000000000000000    
!LATTICE= -1.000000000000000    
!NEWLATTICE=  0.000000000000000    
!LATGRAD_VAR=FALSE
!SEW_LATTICE=  1.000000000000000    
_LATGRADX=  1.000000000000000    
_LATGRADY=  1.000000000000000    
_LATGRADZ=  1.000000000000000    
!SCALTABINIT=  1.000000000000000    
!LOCAL=  0.000000000000000    
!SAVEOCC=  0.000000000000000    
!SAVEDOM= -1.000000000000000    
!RESTDOM= -1.000000000000000    
!SAVEDOM_HF= -1.000000000000000    
!RESTDOM_HF= -1.000000000000000    
!HESSREC=  0.000000000000000    
!FREQREC=  0.000000000000000    
!NMODREC=  0.000000000000000    
!GTASKS=  0.000000000000000    
!HTASKS=  0.000000000000000    
!THRCHG= 0.1000000000000000    
!DEBUG= -1.000000000000000    
!CFIT_CPHF=  0.000000000000000    
!RDOMAUX_CPHF=  3.000000000000000    
!THRAO_CPHF= 0.1000000000000000E-09
!THRMO_CPHF= 0.1000000000000000E-08
!THROV_CPHF= 0.1000000000000000E-11
!THRSW_CPHF= 0.1000000000000000E-09
!THRPROD_CPHF= 0.1000000000000000E-08
!THRAOPR_CPHF= 0.1000000000000000E-11
!CFIT_SCFGRD=  0.000000000000000    
!RDOMAUX_SCFGRD=  5.000000000000000    
!THRAO_SCFGRD= 0.1000000000000000E-09
!THRMO_SCFGRD= 0.1000000000000000E-08
!THROV_SCFGRD= 0.1000000000000000E-11
!THRSW_SCFGRD= 0.1000000000000000E-09
!THRPROD_SCFGRD= 0.1000000000000000E-08
!THRAOPR_SCFGRD= 0.1000000000000000E-11
!LOCFIT_SCF=  0.000000000000000    
!LOCFIT_MP2= -1.000000000000000    
_RIDOM=  0.000000000000000    
_FCI_METHOD=  0.000000000000000    
!CC2_METHOD=  0.000000000000000    
_BASIS2006=FALSE
_SVDDEL= -1.000000000000000    
_SVDDELA= -1.000000000000000    
_SVDDELP= -1.000000000000000    
_SVDDELF= -1.000000000000000    
_SVDDELS= -1.000000000000000    
_SVDDEL_ABS= -1.000000000000000    
_SVDDELA_ABS= -1.000000000000000    
_SVDDELP_ABS= -1.000000000000000    
_SVDDELF_ABS= -1.000000000000000    
_SVDDELS_ABS= -1.000000000000000    
_MAXBASIS=  0.000000000000000    
!OPT_CONICAL=  0.000000000000000    
!CLEARSP_JGRID=  0.000000000000000    
_SHLDTENSOR=  0.000000000000000    
_SHLDTENSORDIA=  0.000000000000000    
_SHLDTENSORPARA=  0.000000000000000    
_OMEGAF_S=  0.000000000000000    
_OMEGAF_T=  0.000000000000000    
_DIPMOM_GS=  0.000000000000000    
_DIPMOM_GS_REL=  0.000000000000000    
_DIPMOM_SING=  0.000000000000000    
_DIPMOM_SING_REL=  0.000000000000000    
_DIPMOM_TRIP=  0.000000000000000    
_DIPMOM_TRIP_REL=  0.000000000000000    
_4EXT_NDISKS=  1.000000000000000    
_RE=  1.000000000000000    
_BE=  1.000000000000000    
_AE=  1.000000000000000    
_WE=  1.000000000000000    
_WEXE=  1.000000000000000    
_WEYE=  1.000000000000000    
_METHOD=  1.000000000000000    
_C0=  1.000000000000000    
_C0R=  1.000000000000000    
_REGRESSION_SLOPE=  1.000000000000000    
_REGRESSION_INTERCEPT=  1.000000000000000    
_LOWERBOUNDMIN_SLOPE=  1.000000000000000    
_LOWERBOUNDMIN_INTERCEPT=  1.000000000000000    
_UPPERBOUNDMIN_SLOPE=  1.000000000000000    
_UPPERBOUNDMIN_INTERCEPT=  1.000000000000000    
_LOWERBOUNDMAX_SLOPE=  1.000000000000000    
_LOWERBOUNDMAX_INTERCEPT=  1.000000000000000    
_UPPERBOUNDMAX_SLOPE=  1.000000000000000    
_UPPERBOUNDMAX_INTERCEPT=  1.000000000000000    
!ZMP=  0.000000000000000    
_MAXIT_ZMP=  500.0000000000000    
_MAXDIS_ZMP=  100.0000000000000    
_ACCU_ZMP=  14.00000000000000    
_SHIFTA_ZMP= -100.0000000000000    
!EMBEDFLAG=  1.000000000000000    
!EMBED=FALSE
!EMBED_F12=FALSE
!EMBEDNUC=  0.000000000000000    
_EMBEDENERGY=  0.000000000000000    
_KSPACETIME=  0.000000000000000    
_RSPACETIME=  0.000000000000000    
!EMBED_DFC=FALSE
!NUM_VOIDS=  0.000000000000000    
_IBODY=  0.000000000000000    
_EMBE_TOTAL=  0.000000000000000    
_EMBE_HF=  0.000000000000000    
_EMBE_CORR=  0.000000000000000    
!EDFT=  0.000000000000000    
_IFASTLATGRAD=  0.000000000000000    
_SINDEX=  0.000000000000000    
_F3SIZE=  0.000000000000000    
_F4SIZE=  0.000000000000000    
_AVDOM=  0.000000000000000    
_AVDOMS=  0.000000000000000    
!CPP_PROG=  0.000000000000000    
_FCIQMC_ERR=  0.000000000000000    
GX1= -4.617940000000000    
GY1=  2.166570000000001    
GZ1=  0.000000000000000    
GX2= -5.217750000000000    
GY2=  3.090010000000000    
GZ2=  0.000000000000000    
GX3= -5.193310000000000    
GY3=  1.226400000000000    
GZ3=  0.000000000000000    
GX4= -3.393410000000000    
GY4=  2.182270000000000    
GZ4=  0.000000000000000    
[Atoms] Angs
C     1    6        -4.6179400000        2.1665700000        0.0000000000
H     2    1        -5.2177500000        3.0900100000        0.0000000000
H     3    1        -5.1933100000        1.2264000000        0.0000000000
O     4    8        -3.3934100000        2.1822700000        0.0000000000
[GTO]
  1 0
 s    9  1.00
  0.6665000000D+04  0.6920001793D-03
  0.1000000000D+04  0.5329001381D-02
  0.2280000000D+03  0.2707700701D-01
  0.6471000000D+02  0.1017180264D+00
  0.2106000000D+02  0.2747400712D+00
  0.7495000000D+01  0.4485641162D+00
  0.2797000000D+01  0.2850740738D+00
  0.5215000000D+00  0.1520400394D-01
  0.1596000000D+00 -0.3191000827D-02
 s    9  1.00
  0.6665000000D+04 -0.1460000642D-03
  0.1000000000D+04 -0.1154000508D-02
  0.2280000000D+03 -0.5725002519D-02
  0.6471000000D+02 -0.2331201026D-01
  0.2106000000D+02 -0.6395502813D-01
  0.7495000000D+01 -0.1499810660D+00
  0.2797000000D+01 -0.1272620560D+00
  0.5215000000D+00  0.5445292395D+00
  0.1596000000D+00  0.5804962554D+00
 s    9  1.00
  0.6665000000D+04  0.0000000000D+00
  0.1000000000D+04  0.0000000000D+00
  0.2280000000D+03  0.0000000000D+00
  0.6471000000D+02  0.0000000000D+00
  0.2106000000D+02  0.0000000000D+00
  0.7495000000D+01  0.0000000000D+00
  0.2797000000D+01  0.0000000000D+00
  0.5215000000D+00  0.0000000000D+00
  0.1596000000D+00  0.1000000000D+01
 p    4  1.00
  0.9439000000D+01  0.3810902127D-01
  0.2002000000D+01  0.2094801169D+00
  0.5456000000D+00  0.5085572839D+00
  0.1517000000D+00  0.4688422617D+00
 p    4  1.00
  0.9439000000D+01  0.0000000000D+00
  0.2002000000D+01  0.0000000000D+00
  0.5456000000D+00  0.0000000000D+00
  0.1517000000D+00  0.1000000000D+01
 d    1  1.00
  0.5500000000D+00  0.1000000000D+01
  
  2 0
 s    4  1.00
  0.1301000000D+02  0.1968498999D-01
  0.1962000000D+01  0.1379769298D+00
  0.4446000000D+00  0.4781477569D+00
  0.1220000000D+00  0.5012397451D+00
 s    4  1.00
  0.1301000000D+02  0.0000000000D+00
  0.1962000000D+01  0.0000000000D+00
  0.4446000000D+00  0.0000000000D+00
  0.1220000000D+00  0.1000000000D+01
 p    1  1.00
  0.7270000000D+00  0.1000000000D+01
  
  3 0
 s    4  1.00
  0.1301000000D+02  0.1968498999D-01
  0.1962000000D+01  0.1379769298D+00
  0.4446000000D+00  0.4781477569D+00
  0.1220000000D+00  0.5012397451D+00
 s    4  1.00
  0.1301000000D+02  0.0000000000D+00
  0.1962000000D+01  0.0000000000D+00
  0.4446000000D+00  0.0000000000D+00
  0.1220000000D+00  0.1000000000D+01
 p    1  1.00
  0.7270000000D+00  0.1000000000D+01
  
  4 0
 s    9  1.00
  0.1172000000D+05  0.7100002503D-03
  0.1759000000D+04  0.5470001928D-02
  0.4008000000D+03  0.2783700981D-01
  0.1137000000D+03  0.1048000369D+00
  0.3703000000D+02  0.2830620998D+00
  0.1327000000D+02  0.4487191582D+00
  0.5025000000D+01  0.2709520955D+00
  0.1013000000D+01  0.1545800545D-01
  0.3023000000D+00 -0.2585000911D-02
 s    9  1.00
  0.1172000000D+05 -0.1600000154D-03
  0.1759000000D+04 -0.1263000121D-02
  0.4008000000D+03 -0.6267000602D-02
  0.1137000000D+03 -0.2571600247D-01
  0.3703000000D+02 -0.7092400682D-01
  0.1327000000D+02 -0.1654110159D+00
  0.5025000000D+01 -0.1169550112D+00
  0.1013000000D+01  0.5573680536D+00
  0.3023000000D+00  0.5727590551D+00
 s    9  1.00
  0.1172000000D+05  0.0000000000D+00
  0.1759000000D+04  0.0000000000D+00
  0.4008000000D+03  0.0000000000D+00
  0.1137000000D+03  0.0000000000D+00
  0.3703000000D+02  0.0000000000D+00
  0.1327000000D+02  0.0000000000D+00
  0.5025000000D+01  0.0000000000D+00
  0.1013000000D+01  0.0000000000D+00
  0.3023000000D+00  0.1000000000D+01
 p    4  1.00
  0.1770000000D+02  0.4301799242D-01
  0.3854000000D+01  0.2289129597D+00
  0.1046000000D+01  0.5087279104D+00
  0.2753000000D+00  0.4605309189D+00
 p    4  1.00
  0.1770000000D+02  0.0000000000D+00
  0.3854000000D+01  0.0000000000D+00
  0.1046000000D+01  0.0000000000D+00
  0.2753000000D+00  0.1000000000D+01
 d    1  1.00
  0.1185000000D+01  0.1000000000D+01
 
 
[MO]
 Sym=      1.1
 Ene=     -20.5780
 Spin= Alpha
 Occup=    2.000000
1 0.000068150483041
2 0.000306395086641
3 0.001427003475618
4 -0.000113395546745
5 -0.000001718972988
6 -0.000000000000001
7 0.000676885792955
8 0.000008162402130
9 0.000000000000001
10 -0.000785960334190
11 0.000155755617650
12 -0.000024008337980
13 -0.000013405028226
14  0.000000000000000
15  0.000000000000000
16 -0.000194516785212
17 0.000013547227688
18 -0.000176053598557
19 -0.000092247034029
20  0.000000000000000
21 -0.000196688619567
22 0.000014027132724
23 -0.000178243575618
24 0.000086528794639
25  0.000000000000000
26 1.00062396919066
27 0.004254165814305
28 -0.002442220178064
29 -0.002430701988129
30 -0.000030966776273
31  0.000000000000000
32 0.002065164672184
33 0.000026345725421
34 0.000000000000000
35 -0.000815238210036
36 -0.000939686968466
37 -0.001311117123515
38 0.000001989098733
39  0.000000000000000
40  0.000000000000000
 Sym=      2.1
 Ene=     -11.3489
 Spin= Alpha
 Occup=    2.000000
1 1.00051762722165
2 0.006931266693498
3 -0.001589611195696
4 0.000633108906879
5 0.000008316169228
6 -0.000000000000001
7 0.000149807910164
8 0.000000658798569
9 0.000000000000000
10 -0.001859128421666
11 -0.002329739409615
12 -0.002573383532799
13 0.000006275713660
14 0.000000000000000
15  0.000000000000000
16 0.000888846432219
17 -0.000079498058274
18 0.000111931924653
19 -0.000156344253776
20 0.000000000000000
21 0.000887009190989
22 -0.000080564569241
23 0.000106797841604
24 0.000158864857865
25 0.000000000000000
26 -0.000202145859259
27 0.000504693564715
28 -0.000723048967367
29 -0.000931692741696
30 -0.000011839860970
31 0.000000000000000
32 0.000544781042394
33 0.000007465640657
34  0.000000000000000
35 0.000516162057149
36 -0.000058110340496
37 0.000067915108482
38 0.000008276136495
39  0.000000000000000
40  0.000000000000000
 Sym=      3.1
 Ene=      -1.3913
 Spin= Alpha