[Molden Format]
[Molpro variables]
_NUMVAR=  779.0000000000000    
_AVOGAD= 0.6022136736000000E+24
_BOLTZ= 0.1380658000000000E-22
_CLIGHT=  29979245800.00000    
_EV2006= 0.3674930886769165E-01
_EV= 0.3674932534394180E-01
_ENULL= 0.8854187817000000E-11
_KJOULE= 0.3808798324128737E-03
_KJOULE/MOL= 0.3808798324128737E-03
_CM= 0.4556335267302901E-05
_CM-1= 0.4556335267302901E-05
_DEB2SI= 0.3335641000000000E-29
_AMU2AU=  1822.888390000000    
_KCAL= 0.1593601117815568E-02
_KCAL/MOL= 0.1593601117815568E-02
_KELVIN2006= 0.3166828861084835E-05
_KELVIN= 0.3166814820820034E-05
_JOULE= 0.4359748200000000E-17
_HERTZ2006= 0.1519829850815779E-15
_HERTZ= 0.1519829846011223E-15
_HZ2006= 0.1519829850815779E-15
_HZ= 0.1519829846011223E-15
_JPCAL=  4.184000000000000    
_PLANCK= 0.6626075540000000E-33
_TOA2006= 0.5291772490000000    
_TOA= 0.5291772090000000    
_TOANG2006= 0.5291772490000000    
_TOANG= 0.5291772090000000    
_TORAD= 0.1745329251994330E-01
_TOCM=  219474.6306700000    
_TODEBYE=  2.541580000000000    
_TOEV2006=  27.21139610000000    
_TOE= 0.4803242000000000E-09
_TOEV=  27.21138390000000    
_TOHERTZ2006=  6579683899900000.    
_TOHERTZ=  6579683920700000.    
_TOHZ2006=  6579683899900000.    
_TOHZ=  6579683920700000.    
_TOK2006=  315773.3000000000    
_TOK=  315774.7000000000    
_TOKCAL=  627.5096000000000    
_TOKELVIN2006=  315773.3000000000    
_TOKELVIN=  315774.7000000000    
_TOKJ=  2625.500000000000    
_TOKJOULE=  2625.500000000000    
_TOKG= 0.1660565586000000E-26
_ANG2006=  1.889725988578923    
_ANG=  1.889726131421507    
_ANGSTROM2006=  1.889725988578923    
_ANGSTROM=  1.889726131421507    
_RPAREF=  0.000000000000000    
_RPADISS=  0.000000000000000    
_IGNORE_UNDEF=  2.000000000000000    
_STRICTCHECK=  0.000000000000000    
_SEW_ONEEL=  0.000000000000000    
_CPPDONE=FALSE
_DKROLL_DONE=  0.000000000000000    
_FOCKDONE=TRUE
_GRADONE=FALSE
_HESSDONE=FALSE
_INTDONE=TRUE
_SCFDONE=TRUE
_MODUL_CUDA=FALSE
_MODUL_SLATER=FALSE
_MODUL_MRCC=FALSE
_MODUL_NBO6=FALSE
_MODUL_NECI=TRUE
_MRCC_EXEC=
_FITC_AO_SAVED=FALSE
_FITC_MO_SAVED=FALSE
_SHARED_FS=TRUE
_LSTYP=SEWARD
_INTYP=INTS
_GEOMTYP=ZMAT
_GRADTYP=ALASKA
_DIRECT=FALSE
_DKROLL=FALSE
_DKHO= -1.000000000000000    
_DKHP= -1.000000000000000    
_SYNCM=  0.000000000000000    
_DFTNAME=  0.000000000000000    
_DFTFUNC=  0.000000000000000    
_BASIS=6-31G**
_BASISSETS=
_ZSIGNX=
_ZSIGNY=
_ZSIGNZ=
_ZCENTRE=
_ZSYMEL=
_ZPLANE=
_ZUNIT=ANG
_ZORIENT=  1.000000000000000    
_CHARGE=  1.000000000000000    
_SCFCHARGE=  1.000000000000000    
_MCCHARGE=  1.000000000000000    
_CICHARGE=  1.000000000000000    
_CCCHARGE=  1.000000000000000    
_NELEC=  10.00000000000000    
!NELEC=  10.00000000000000    
_SCFNELEC=  10.00000000000000    
_MCNELEC=  10.00000000000000    
_CINELEC=  10.00000000000000    
_CCNELEC=  10.00000000000000    
_SPIN=  10.00000000000000    
!SPIN=  0.000000000000000    
_SCFSPIN=  0.000000000000000    
_MCSPIN=  0.000000000000000    
_CISPIN=  0.000000000000000    
_CCSPIN=  0.000000000000000    
_STATE=  0.000000000000000    
_SCFSTATE=  0.000000000000000    
_MCSTATE=  0.000000000000000    
_CISTATE=  0.000000000000000    
_SYMMETRY=  0.000000000000000    
!SYMMETRY=  0.000000000000000    
_SCFSYMMETRY=  0.000000000000000    
_MCSYMMETRY=  0.000000000000000    
_CISYMMETRY=  0.000000000000000    
_CCSYMMETRY=  0.000000000000000    
_SCFSYMM=  0.000000000000000    
_MCSYMM=  0.000000000000000    
_CISYMM=  0.000000000000000    
_CCSYMM=  0.000000000000000    
_SCFSYM=  0.000000000000000    
_MCSYM=  0.000000000000000    
_CISYM=  0.000000000000000    
_CCSYM=  0.000000000000000    
_WEIGHT=  0.000000000000000    
_MCWEIGHT=  0.000000000000000    
_LQUANT=  0.000000000000000    
_MCLQUANT=  0.000000000000000    
_OPTCONV=  0.000000000000000    
_QSDSTEP=  0.000000000000000    
_QSDIRC=  0.000000000000000    
_PROGRAM=RHF-SCF
_CPUSTEP= 0.3000000000000000E-01
_SYSSTEP= 0.1000000000000001E-01
_WALLSTEP= 0.5000000000000000E-01
!PERT= 0.5000000000000000E-01
!DFMP2= 0.5000000000000000E-01
!DFSCF=  0.000000000000000    
!DFHFENERG=  0.000000000000000    
!SCSGRD=  0.000000000000000    
_ATCHARGE=  0.000000000000000    
_BASINP=  610.0000000000000    
_CARTESIAN=TRUE
_CFIT=TRUE
_CFIT_FRED=TRUE
_CFIT_FRED_THR=TRUE
_CHII2=TRUE
_CHIRS=TRUE
_COEFF=TRUE
_CPU2IDX_CFIT=TRUE
_CPU3IDX_CFIT=TRUE
_CPUASMBL_CFIT=TRUE
_CPUBLAS1=TRUE
_CPUBLAS2=TRUE
_CPUBLAS3=TRUE
_CPUINT_DTRAF=TRUE
_CPUSOLVE_CFIT=TRUE
_CPUTOT= 0.1900000000000000    
_CPUTR1_CFIT= 0.1900000000000000    
_CPUTR2_CFIT= 0.1900000000000000    
_CPUINV_CFIT= 0.1900000000000000    
_CPUFIT_CFIT= 0.1900000000000000    
_CPUTRANS_CFIT= 0.1900000000000000    
_CPUSCREEN_CFIT= 0.1900000000000000    
_CPUTRANS_DTRAF= 0.1900000000000000    
_CPUTRA_DTRAF= 0.1900000000000000    
_CPUTRIPL= 0.1900000000000000    
_SYSTRIPL= 0.1900000000000000    
_WALLTRIPL= 0.1900000000000000    
_CPUCCSD= 0.1900000000000000    
_SYSCCSD= 0.1900000000000000    
_WALLCCSD= 0.1900000000000000    
_CPUSORT= 0.1999999999999999E-01
_SYSSORT= 0.9999999999999981E-02
_WALLSORT= 0.3000000026077032E-01
_CPUF12= 0.3000000026077032E-01
_SYSF12= 0.3000000026077032E-01
_WALLF12= 0.3000000026077032E-01
_CPUF12B= 0.3000000026077032E-01
_SYSF12B= 0.3000000026077032E-01
_WALLF12B= 0.3000000026077032E-01
_CPUTRANS= 0.3000000026077032E-01
_SYSTRANS= 0.3000000026077032E-01
_WALLTRANS= 0.3000000026077032E-01
_CPU2EXT= 0.3000000026077032E-01
_CPU3EXT= 0.3000000026077032E-01
_CPU4EXT= 0.3000000026077032E-01
_WALL2EXT= 0.3000000026077032E-01
_WALL3EXT= 0.3000000026077032E-01
_WALL4EXT= 0.3000000026077032E-01
_DALTON= 0.3000000026077032E-01
_DARW= 0.3000000026077032E-01
_DECAY= 0.3000000026077032E-01
_DELE_CFIT= 0.3000000026077032E-01
_DELG_CFIT= 0.3000000026077032E-01
_DELTA= 0.3000000026077032E-01
_DFTEXFAC=  1.000000000000000    
_DFTFAC=  1.000000000000000    
_DFTFUN=  1.000000000000000    
_DFTFUNS=  1.000000000000000    
_DMEX=  1.000000000000000    
_DMEY=  1.000000000000000    
_DMEZ=  1.000000000000000    
_DMNX=  1.000000000000000    
_DMNY=  1.000000000000000    
_DMNZ=  1.000000000000000    
_DMSCF=  1.000000000000000    
_DMSCF_Efield=  1.000000000000000    
_DMSCF_I=  1.000000000000000    
_DMSCF_J=  1.000000000000000    
_DMSCF_K=  1.000000000000000    
_DMSCF_N1=  1.000000000000000    
_DMSCF_N2=  1.000000000000000    
_DMSCF_NUC=  1.000000000000000    
_DMSCF_T=  1.000000000000000    
_DMSCF_V=  1.000000000000000    
_DMX= 0.7665891271123543E-07
_DMY=-0.4848714745681049E-14
_DMZ= 0.1066653954546391E-06
_DMX_SCF= 0.7665891271123543E-07
_DMY_SCF=-0.4848714745681049E-14
_DMZ_SCF= 0.1066653954546391E-06
_DMZCOR= 0.1066653954546391E-06
_DM_RHO1= 0.1066653954546391E-06
_DM_RVAL= 0.1066653954546391E-06
_DUMMYATOMS= 0.1066653954546391E-06
_FREQUENCIES= 0.1066653954546391E-06
_EDISP= 0.1066653954546391E-06
_EEDISP= 0.1066653954546391E-06
_EINTRA= 0.1066653954546391E-06
_EINTRA_R12= 0.1066653954546391E-06
_EINTER_R12= 0.1066653954546391E-06
_EHOMO=-0.5434382344780303    
_EIONIC=-0.5434382344780303    
_ELUMO= 0.2559514616890811    
_EMP2= 0.2559514616890811    
_EMP2_SING= 0.2559514616890811    
_EMP2_TRIP= 0.2559514616890811    
_EMP2_SINGLES= 0.2559514616890811    
_EMP2_SINGLES_D= 0.2559514616890811    
_EMP2_SCS= 0.2559514616890811    
_EMP2_STRONG= 0.2559514616890811    
_EMP2_CLOSE= 0.2559514616890811    
_EMP2_WEAK= 0.2559514616890811    
_EMP2_DIST= 0.2559514616890811    
_ECSING= 0.2559514616890811    
_ECTRIP= 0.2559514616890811    
_ECSINGLES= 0.2559514616890811    
_EF12= 0.2559514616890811    
_EF12_SING= 0.2559514616890811    
_EF12_TRIP= 0.2559514616890811    
_ECSING_F12= 0.2559514616890811    
_ECTRIP_F12= 0.2559514616890811    
_EF12_RHFRELAX= 0.2559514616890811    
_EF12_RHFRELAX_C= 0.2559514616890811    
_EF12_CONVSUPPRS= 0.2559514616890811    
_EF12_CONVSUPPRT= 0.2559514616890811    
_EF12_SINGLES= 0.2559514616890811    
_EF12_SINGLES_C= 0.2559514616890811    
_EF12_SCS= 0.2559514616890811    
_EF12_STRONG= 0.2559514616890811    
_EF12_CLOSE= 0.2559514616890811    
_EF12_WEAK= 0.2559514616890811    
_EF12_DIST= 0.2559514616890811    
_EF12S= 0.2559514616890811    
_EF12S_SING= 0.2559514616890811    
_EF12S_TRIP= 0.2559514616890811    
_EF12S_SCS= 0.2559514616890811    
_EF12S_STRONG= 0.2559514616890811    
_EF12S_CLOSE= 0.2559514616890811    
_EF12S_WEAK= 0.2559514616890811    
_EF12S_DIST= 0.2559514616890811    
_EF12D= 0.2559514616890811    
_EF12D_SING= 0.2559514616890811    
_EF12D_TRIP= 0.2559514616890811    
_EF12D_SCS= 0.2559514616890811    
_EF12D_STRONG= 0.2559514616890811    
_EF12D_CLOSE= 0.2559514616890811    
_EF12D_WEAK= 0.2559514616890811    
_EF12D_DIST= 0.2559514616890811    
_EF12F= 0.2559514616890811    
_EF12F_SING= 0.2559514616890811    
_EF12F_TRIP= 0.2559514616890811    
_EF12F_SCS= 0.2559514616890811    
_EF12F_STRONG= 0.2559514616890811    
_EF12F_CLOSE= 0.2559514616890811    
_EF12F_WEAK= 0.2559514616890811    
_EF12F_DIST= 0.2559514616890811    
_EMP2R12_2AD= 0.2559514616890811    
_EMP2R12_2A= 0.2559514616890811    
_EMP2R12_2AP= 0.2559514616890811    
_EMP2R12_2SAD= 0.2559514616890811    
_EMP2R12_2SA= 0.2559514616890811    
_EMP2R12_2SAP= 0.2559514616890811    
_EMP2R12_2B= 0.2559514616890811    
_EMP2_R12= 0.2559514616890811    
_EMP2_R12_A= 0.2559514616890811    
_EMP2_R12_AP= 0.2559514616890811    
_EMP2_R12_AD= 0.2559514616890811    
_EMP2_R12_2A= 0.2559514616890811    
_EMP2_R12_2SA= 0.2559514616890811    
_EMP2_R12_2SAP= 0.2559514616890811    
_EMP2_R12_2SAD= 0.2559514616890811    
_EMP2_R12_2AP= 0.2559514616890811    
_EMP2_R12_DIAG= 0.2559514616890811    
_EMP2_R12_STRONG= 0.2559514616890811    
_EMP2_R12_CLOSE= 0.2559514616890811    
_EMP2_R12_WEAK= 0.2559514616890811    
_EMP2_R12_DIST= 0.2559514616890811    
_EMP2_R12_SING= 0.2559514616890811    
_EMP2_R12_TRIP= 0.2559514616890811    
_EMP2_R12_SCS= 0.2559514616890811    
_EMP2R= 0.2559514616890811    
_EMP3= 0.2559514616890811    
_EMP3R= 0.2559514616890811    
_EMP4= 0.2559514616890811    
_ENERGC= 0.2559514616890811    
_ENERGCL= 0.2559514616890811    
_ENERG_CC= 0.2559514616890811    
_ENERG_CV= 0.2559514616890811    
_ENERG_VV= 0.2559514616890811    
_ENERGD= 0.2559514616890811    
_ENERGD0= 0.2559514616890811    
_ENERGD1= 0.2559514616890811    
_ENERGD2= 0.2559514616890811    
_ENERGD3= 0.2559514616890811    
_ENERGD4= 0.2559514616890811    
_ENERGP= 0.2559514616890811    
_ENERGP0= 0.2559514616890811    
_ENERGP1= 0.2559514616890811    
_ENERGP2= 0.2559514616890811    
_ENERGP3= 0.2559514616890811    
_ENERGP4= 0.2559514616890811    
_ENERGR= 0.2559514616890811    
_ENERGRR= 0.2559514616890811    
_ENERGS= 0.2559514616890811    
_ENERGT= 0.2559514616890811    
_ENERGU= 0.2559514616890811    
_ENERGW= 0.2559514616890811    
_ENERGY= -40.20162373762550    
_ECORR= -40.20162373762550    
_ECORR_SZABO= -40.20162373762550    
_ECORR_TILDE= -40.20162373762550    
_ECORR_ACFDT= -40.20162373762550    
_ECORR_ACFDX= -40.20162373762550    
_ECORR_DBAR= -40.20162373762550    
_ECORR_DBAX= -40.20162373762550    
_ECORR_RCCD= -40.20162373762550    
_ECORR_DRCCD= -40.20162373762550    
_ECORR_SOSEX= -40.20162373762550    
_ECORR_PLASM= -40.20162373762550    
_ECORR_LOGM= -40.20162373762550    
_ECORR_LSOX= -40.20162373762550    
_ECORR_LRPA= -40.20162373762550    
_ENERGY_MP= -40.20162373762550    
_ECBS= -40.20162373762550    
_ECBSD= -40.20162373762550    
_ENUC=  13.44771867581938    
_EPDIST=  13.44771867581938    
_EPDIST_SING=  13.44771867581938    
_EPDIST_TRIP=  13.44771867581938    
_EPDIST_R12=  13.44771867581938    
_EPDIST_SING_R12=  13.44771867581938    
_EPDIST_TRIP_R12=  13.44771867581938    
_EPSUM=  13.44771867581938    
_EPSUM_R12=  13.44771867581938    
_EPS1= -11.20850071533391    
_EPS2= -11.20850071533391    
_EPS3= -11.20850071533391    
_EPS4= -11.20850071533391    
_EPS5= -11.20850071533391    
_EPS6= -11.20850071533391    
_EPS7= -11.20850071533391    
_EPS8= -11.20850071533391    
_EREL= -11.20850071533391    
_FLOPBLAS1= -11.20850071533391    
_FLOPBLAS2= -11.20850071533391    
_FLOPBLAS3= -11.20850071533391    
_FLOPDGM= -11.20850071533391    
_FLOPDGV= -11.20850071533391    
_FLOPMXM= -11.20850071533391    
_FLOPMXV= -11.20850071533391    
_FREQSTEP= -11.20850071533391    
!RS2GRSTATE= -11.20850071533391    
!RS2GRSYM= -11.20850071533391    
_GRADENERG= -11.20850071533391    
_GRADEXFAC=  9999.000000000000    
_GRADMETHOD=  1.000000000000000    
_NMRMETHOD=  0.000000000000000    
_GRADRECORD=  0.000000000000000    
_VIRIAL=  0.000000000000000    
_GRADX=  0.000000000000000    
_GRADY=  0.000000000000000    
_GRADZ=  0.000000000000000    
_GRADVAR=  0.000000000000000    
_GRID=  0.000000000000000    
_GRID_FREEZE=  0.000000000000000    
!GRID_FREEZE= -1.000000000000000    
!GRIDREC= -1.000000000000000    
_GRID_WEIGHT_CUT= -1.000000000000000    
_GRID_BLOCKSIZE= -1.000000000000000    
_GRID_SPARSITY= -1.000000000000000    
_GRID_RMAX= -1.000000000000000    
_GTOTAL= -1.000000000000000    
_HDIA= -1.000000000000000    
_HDIACI= -1.000000000000000    
_HEAT= -1.000000000000000    
_HTOTAL= -1.000000000000000    
_INCR_CORR= -1.000000000000000    
_INCR_COUNT= -1.000000000000000    
_INCR_READY= -1.000000000000000    
_ISCHI= -1.000000000000000    
_ITERATIONS=  7.000000000000000    
!INTCACHE=  7.000000000000000    
_KFIT=  7.000000000000000    
_LASTNELEC=  10.00000000000000    
_LASTSPIN=  0.000000000000000    
_LASTSYM=  1.000000000000000    
_LL=  1.000000000000000    
_MASSV=  1.000000000000000    
_MIN_ITER=  1.000000000000000    
_MIXANG=  1.000000000000000    
_MIXANGCI=  1.000000000000000    
_MPP_PROG=  0.000000000000000    
_MSENERGY=  0.000000000000000    
_NACME=  0.000000000000000    
_NBAS_CFIT=  0.000000000000000    
_NEWREC=  0.000000000000000    
_NGRID=  0.000000000000000    
_NPROC_MPP=  1.000000000000000    
_NPROC_MPPX=  1.000000000000000    
_NPROC_SMP=  1.000000000000000    
_NUMSTEP=  0.000000000000000    
_OPNUC=  0.000000000000000    
_OPTCONVMX=  0.000000000000000    
_OPTCONVRMS=  0.000000000000000    
_OPTGRAD=  0.000000000000000    
_OPTGRADMX=  0.000000000000000    
_OPTGRADRMS=  0.000000000000000    
_OPTRMSMAX=  0.000000000000000    
_OPTSTEP=  0.000000000000000    
_ORBITAL=  2100.200000000000    
_PAOINT_CFIT=  2100.200000000000    
_PENALTY=  2100.200000000000    
_PH1INT_CFIT=  2100.200000000000    
_PH1VEC_CFIT=  2100.200000000000    
_PH2INT_CFIT=  2100.200000000000    
_PHASE=  2100.200000000000    
_PI=  3.141592653589793    
_PMOINT_CFIT=  3.141592653589793    
_PMOVEC_CFIT=  3.141592653589793    
_POISSON_ECORR=  3.141592653589793    
_POISSON_ERROR=  3.141592653589793    
_POLXX=  3.141592653589793    
_POLXY=  3.141592653589793    
_POLXZ=  3.141592653589793    
_POLYY=  3.141592653589793    
_POLYZ=  3.141592653589793    
_POLZZ=  3.141592653589793    
_POLYX=  3.141592653589793    
_POLZX=  3.141592653589793    
_POLZY=  3.141592653589793    
_POVINT_CFIT=  3.141592653589793    
_ROOT=  3.141592653589793    
_RPDIST=  3.141592653589793    
_RPMIN=  3.141592653589793    
_RPMAX=  3.141592653589793    
_EPCON=  3.141592653589793    
_ECDIAG=  3.141592653589793    
_EPDIAG=  3.141592653589793    
!MCACT=  3.141592653589793    
!MCCLOSED=  3.141592653589793    
!MCFREEZE=  3.141592653589793    
!MCMS2=  3.141592653589793    
!MCNEL=  3.141592653589793    
!MCNSTSYM=  3.141592653589793    
!MCSTATE=  3.141592653589793    
!MCSYM=  3.141592653589793    
!MCWEIGHT=  3.141592653589793    
_SEIG_MIN= 0.1768826846804841E-01
_SEWPROP=TRUE
_SMAT=TRUE
_SMATCI=TRUE
_SSQUARED=TRUE
_STATUS=  1.000000000000000    
_SYSBLAS1=  1.000000000000000    
_SYSBLAS2=  1.000000000000000    
_SYSBLAS3=  1.000000000000000    
_SYSTEM_RC=  1.000000000000000    
_SYSTOT= 0.1900000000000000    
_T1DIAG= 0.1900000000000000    
_D1DIAG= 0.1900000000000000    
_TASK= 0.1900000000000000    
_TROV= 0.1900000000000000    
_HMAT= 0.1900000000000000    
_UMAT= 0.1900000000000000    
_UMATCI= 0.1900000000000000    
_VERSION=  2012001.000000000    
_WALLBLAS1=  2012001.000000000    
_WALLBLAS2=  2012001.000000000    
_WALLBLAS3=  2012001.000000000    
_WALLTOT= 0.4300000000000000    
_ZPE= 0.4300000000000000    
!DFBASIS_COUL= 0.4300000000000000    
!DFBASIS_EXCH= 0.4300000000000000    
!DFBASIS_MP2= 0.4300000000000000    
!DFBASIS_MC= 0.4300000000000000    
!DFBASIS_F12K= 0.4300000000000000    
!DFBASIS_CCSD= 0.4300000000000000    
!RIBASIS_MP2= 0.4300000000000000    
!RIBASIS_EXCH= 0.4300000000000000    
_DATE=21-Jul-14
_LASTORB=RHF
_MACHINE=Linux-2.6.32-431.20.3.el6.x86_64/tiger2(x86_64) 64 bit serial version
_METHODC=
_METHODT=
_OUTPUT=/home/fjricci/molpro/methane.xml
_PGROUP=C1
_SEMI=
_TIME=11:09:54
_ANSATZ=
_LIBMOL=/home/EAC/molpro2012.1.binary/molpro-serial/lib/
_VDIAG=
_UDIAG=
!AOINTADDSC=
_TRANSFORM_FORCE=
_SOLVE_ITER=
_VSCF_FREQ=
_VMCSCF_FREQ=
_VCI_FREQ=
_VMP2_FREQ=
_VSCF_INTENS=
_VMCSCF_INTENS=
_VCI_INTENS=
_VMP2_INTENS=
_VIB_PROG=
!EREF=
!VIBCNT=  0.000000000000000    
!RGHFCNT=  0.000000000000000    
!SURFREC=  0.000000000000000    
!POLYREC=  0.000000000000000    
!DIPREC=  0.000000000000000    
!VSCFREC=  0.000000000000000    
!VCIREC=  0.000000000000000    
!PVCIREC=  0.000000000000000    
!VMP2REC=  0.000000000000000    
!VMCSCFREC=  0.000000000000000    
!VMRCIREC=  0.000000000000000    
!VIBINFO=  0.000000000000000    
!GAREC=  0.000000000000000    
!SCFORB=  21002.00000000000    
!MCORB=  21002.00000000000    
!CIOCC=  21002.00000000000    
!CICORE=  21002.00000000000    
!CICLOS=  21002.00000000000    
!UNO_OCC=  21002.00000000000    
!UNO_CLOSED=  21002.00000000000    
!CINSTSYM=  21002.00000000000    
!CIISTSYM=  21002.00000000000    
!CIISTMS2=  21002.00000000000    
!CIISTNEL=  21002.00000000000    
!CIMS2=  21002.00000000000    
!NEWMOL= -1.000000000000000    
!NEWSYM= -1.000000000000000    
!NEWORIENT= -1.000000000000000    
_SLFILES=slscratch
_NGSSTO=  9.000000000000000    
_SIN=SIN
_COS=COS
_TAN=TAN
_ACOS=ACOS
_ASIN=ASIN
_ATAN=ATAN
_COSH=COSH
_SINH=SINH
_TANH=TANH
_ABS=ABS
_MOD=MOD
_ERF=ERF
_REFC=REFC
_ERFC=ERFC
_HYPOT=HYPOT
_J0=J0
_J1=J1
_JN=JN
_GAMMA=GAMMA
_LGAMMA=LGAMMA
_Y0=Y0
_Y1=Y1
_YN=YN
_EXP=EXP
_LOG=LOG
_LOG10=LOG10
_SQRT=SQRT
_INT=INT
_NINT=NINT
_MAX=MAX
_MIN=MIN
_COSMO=  0.000000000000000    
_COSMOIT=  0.000000000000000    
_COSMOES=  0.000000000000000    
_COSMOEDS=  0.000000000000000    
_COSMOEC=  0.000000000000000    
_COSMOEDCORR=  0.000000000000000    
_FEPSI=  1.000000000000000    
_SL_IsMM=  0.000000000000000    
_SL_NSYM=  1.000000000000000    
_SL_System_BitSw=  0.000000000000000    
_SL_Unique_atoms=  0.000000000000000    
_SL_Last_energy=  0.000000000000000    
_SL_GRAD=  0.000000000000000    
_SL_MAXUPD_Hess=  5.000000000000000    
_SL_N_PRINT_COD=  5.000000000000000    
_SL_PRINT_CODES=  0.000000000000000    
_SL_BasType=  0.000000000000000    
_SL_Energy_Pred=  0.000000000000000    
_SL_New_Coords=  0.000000000000000    
_SL_Total_Nuclea=  0.000000000000000    
_SL_Highest_Mltp=  0.000000000000000    
_SL_Ref_Geom=  0.000000000000000    
_SL_Symmetry_ope=  1.000000000000000    
_SL_agrad=  0.000000000000000    
_SL_GrdMax=  0.000000000000000    
_SL_GrdNorm=  0.000000000000000    
_SL_GrdRMS=  0.000000000000000    
_CONFIG=  0.000000000000000    
_OCC=  0.000000000000000    
_CORE=  0.000000000000000    
_CLOSED=  0.000000000000000    
_SCFOCC=  0.000000000000000    
_SCFCLOSED=  0.000000000000000    
_SCFCORE=  0.000000000000000    
_MCOCC=  0.000000000000000    
_MCCLOSED=  0.000000000000000    
_MCFROZEN=  0.000000000000000    
_MCCORE=  0.000000000000000    
_CIOCC=  0.000000000000000    
_CICLOSED=  0.000000000000000    
_CICORE=  0.000000000000000    
_CCOCC=  0.000000000000000    
_CCCLOSED=  0.000000000000000    
_CCCORE=  0.000000000000000    
_SRXC=  0.000000000000000    
_SRC=  0.000000000000000    
_SRX=  0.000000000000000    
_SRH=  0.000000000000000    
_E_EXCHANGE=  0.000000000000000    
!LATTICE= -1.000000000000000    
!NEWLATTICE=  0.000000000000000    
!LATGRAD_VAR=FALSE
!SEW_LATTICE=  1.000000000000000    
_LATGRADX=  1.000000000000000    
_LATGRADY=  1.000000000000000    
_LATGRADZ=  1.000000000000000    
!SCALTABINIT=  1.000000000000000    
!LOCAL=  0.000000000000000    
!SAVEOCC=  0.000000000000000    
!SAVEDOM= -1.000000000000000    
!RESTDOM= -1.000000000000000    
!SAVEDOM_HF= -1.000000000000000    
!RESTDOM_HF= -1.000000000000000    
!HESSREC=  0.000000000000000    
!FREQREC=  0.000000000000000    
!NMODREC=  0.000000000000000    
!GTASKS=  0.000000000000000    
!HTASKS=  0.000000000000000    
!THRCHG= 0.1000000000000000    
!DEBUG= -1.000000000000000    
!CFIT_CPHF=  0.000000000000000    
!RDOMAUX_CPHF=  3.000000000000000    
!THRAO_CPHF= 0.1000000000000000E-09
!THRMO_CPHF= 0.1000000000000000E-08
!THROV_CPHF= 0.1000000000000000E-11
!THRSW_CPHF= 0.1000000000000000E-09
!THRPROD_CPHF= 0.1000000000000000E-08
!THRAOPR_CPHF= 0.1000000000000000E-11
!CFIT_SCFGRD=  0.000000000000000    
!RDOMAUX_SCFGRD=  5.000000000000000    
!THRAO_SCFGRD= 0.1000000000000000E-09
!THRMO_SCFGRD= 0.1000000000000000E-08
!THROV_SCFGRD= 0.1000000000000000E-11
!THRSW_SCFGRD= 0.1000000000000000E-09
!THRPROD_SCFGRD= 0.1000000000000000E-08
!THRAOPR_SCFGRD= 0.1000000000000000E-11
!LOCFIT_SCF=  0.000000000000000    
!LOCFIT_MP2= -1.000000000000000    
_RIDOM=  0.000000000000000    
_FCI_METHOD=  0.000000000000000    
!CC2_METHOD=  0.000000000000000    
_BASIS2006=FALSE
_SVDDEL= -1.000000000000000    
_SVDDELA= -1.000000000000000    
_SVDDELP= -1.000000000000000    
_SVDDELF= -1.000000000000000    
_SVDDELS= -1.000000000000000    
_SVDDEL_ABS= -1.000000000000000    
_SVDDELA_ABS= -1.000000000000000    
_SVDDELP_ABS= -1.000000000000000    
_SVDDELF_ABS= -1.000000000000000    
_SVDDELS_ABS= -1.000000000000000    
_MAXBASIS=  0.000000000000000    
!OPT_CONICAL=  0.000000000000000    
!CLEARSP_JGRID=  0.000000000000000    
_SHLDTENSOR=  0.000000000000000    
_SHLDTENSORDIA=  0.000000000000000    
_SHLDTENSORPARA=  0.000000000000000    
_OMEGAF_S=  0.000000000000000    
_OMEGAF_T=  0.000000000000000    
_DIPMOM_GS=  0.000000000000000    
_DIPMOM_GS_REL=  0.000000000000000    
_DIPMOM_SING=  0.000000000000000    
_DIPMOM_SING_REL=  0.000000000000000    
_DIPMOM_TRIP=  0.000000000000000    
_DIPMOM_TRIP_REL=  0.000000000000000    
_4EXT_NDISKS=  1.000000000000000    
_RE=  1.000000000000000    
_BE=  1.000000000000000    
_AE=  1.000000000000000    
_WE=  1.000000000000000    
_WEXE=  1.000000000000000    
_WEYE=  1.000000000000000    
_METHOD=  1.000000000000000    
_C0=  1.000000000000000    
_C0R=  1.000000000000000    
_REGRESSION_SLOPE=  1.000000000000000    
_REGRESSION_INTERCEPT=  1.000000000000000    
_LOWERBOUNDMIN_SLOPE=  1.000000000000000    
_LOWERBOUNDMIN_INTERCEPT=  1.000000000000000    
_UPPERBOUNDMIN_SLOPE=  1.000000000000000    
_UPPERBOUNDMIN_INTERCEPT=  1.000000000000000    
_LOWERBOUNDMAX_SLOPE=  1.000000000000000    
_LOWERBOUNDMAX_INTERCEPT=  1.000000000000000    
_UPPERBOUNDMAX_SLOPE=  1.000000000000000    
_UPPERBOUNDMAX_INTERCEPT=  1.000000000000000    
!ZMP=  0.000000000000000    
_MAXIT_ZMP=  500.0000000000000    
_MAXDIS_ZMP=  100.0000000000000    
_ACCU_ZMP=  14.00000000000000    
_SHIFTA_ZMP= -100.0000000000000    
!EMBEDFLAG=  1.000000000000000    
!EMBED=FALSE
!EMBED_F12=FALSE
!EMBEDNUC=  0.000000000000000    
_EMBEDENERGY=  0.000000000000000    
_KSPACETIME=  0.000000000000000    
_RSPACETIME=  0.000000000000000    
!EMBED_DFC=FALSE
!NUM_VOIDS=  0.000000000000000    
_IBODY=  0.000000000000000    
_EMBE_TOTAL=  0.000000000000000    
_EMBE_HF=  0.000000000000000    
_EMBE_CORR=  0.000000000000000    
!EDFT=  0.000000000000000    
_IFASTLATGRAD=  0.000000000000000    
_SINDEX=  0.000000000000000    
_F3SIZE=  0.000000000000000    
_F4SIZE=  0.000000000000000    
_AVDOM=  0.000000000000000    
_AVDOMS=  0.000000000000000    
!CPP_PROG=  0.000000000000000    
_FCIQMC_ERR=  0.000000000000000    
GX1=  0.000000000000000    
GY1=  0.000000000000000    
GZ1=  0.000000000000000    
GX2=  0.000000000000000    
GY2=  0.000000000000000    
GZ2=  1.089000450149759    
GX3=  1.026719414560604    
GY3=  0.000000000000000    
GZ3=-0.3630001676891599    
GX4=-0.5133602099986523    
GY4=-0.8891653549218695    
GZ4=-0.3630001676891599    
GX5=-0.5133602099986523    
GY5= 0.8891653549218695    
GZ5=-0.3630001676891599    
[Atoms] Angs
C     1    6         0.0000000000        0.0000000000        0.0000000000
H     2    1         0.0000000000        0.0000000000        1.0890004501
H     3    1         1.0267194146        0.0000000000       -0.3630001677
H     4    1        -0.5133602100       -0.8891653549       -0.3630001677
H     5    1        -0.5133602100        0.8891653549       -0.3630001677
[GTO]
  1 0
 s    6  1.00
  0.3047524900D+04  0.1834737091D-02
  0.4573695200D+03  0.1403732293D-01
  0.1039486800D+03  0.6884262165D-01
  0.2921015500D+02  0.2321844388D+00
  0.9286663000D+01  0.4679413476D+00
  0.3163927000D+01  0.3623119882D+00
 s    3  1.00
  0.7868272300D+01 -0.1193324245D+00
  0.1881288500D+01 -0.1608541561D+00
  0.5442492600D+00  0.1143456443D+01
 s    1  1.00
  0.1687144800D+00  0.1000000000D+01
 p    3  1.00
  0.7868272300D+01  0.6899906693D-01
  0.1881288500D+01  0.3164239597D+00
  0.5442492600D+00  0.7443082892D+00
 p    1  1.00
  0.1687144800D+00  0.1000000000D+01
 d    1  1.00
  0.8000000000D+00  0.1000000000D+01
  
  2 0
 s    3  1.00
  0.1873113700D+02  0.3349460400D-01
  0.2825394400D+01  0.2347269500D+00
  0.6401216900D+00  0.8137573301D+00
 s    1  1.00
  0.1612777600D+00  0.1000000000D+01
 p    1  1.00
  0.1100000000D+01  0.1000000000D+01
  
  3 0
 s    3  1.00
  0.1873113700D+02  0.3349460400D-01
  0.2825394400D+01  0.2347269500D+00
  0.6401216900D+00  0.8137573301D+00
 s    1  1.00
  0.1612777600D+00  0.1000000000D+01
 p    1  1.00
  0.1100000000D+01  0.1000000000D+01
  
  4 0
 s    3  1.00
  0.1873113700D+02  0.3349460400D-01
  0.2825394400D+01  0.2347269500D+00
  0.6401216900D+00  0.8137573301D+00
 s    1  1.00
  0.1612777600D+00  0.1000000000D+01
 p    1  1.00
  0.1100000000D+01  0.1000000000D+01
  
  5 0
 s    3  1.00
  0.1873113700D+02  0.3349460400D-01
  0.2825394400D+01  0.2347269500D+00
  0.6401216900D+00  0.8137573301D+00
 s    1  1.00
  0.1612777600D+00  0.1000000000D+01
 p    1  1.00
  0.1100000000D+01  0.1000000000D+01
 
 
[MO]
 Sym=      1.1
 Ene=     -11.2085
 Spin= Alpha
 Occup=    2.000000
1 0.99569942553647
2 0.028013581657671
3 -0.013150620054172
4 -0.000000000329497
5  0.000000000000000
6 0.000000000117803
7 0.000000000240803
8 0.000000000000001
9 -0.000000001074583
10 -0.001760246666600
11 -0.001760247461137
12 -0.001760246972358
13 0.000000000000000
14 -0.000000000152482
15  0.000000000000000
16 -0.000030273462730
17 0.002398043525741
18 -0.000000000006790
19  0.000000000000000
20 0.000189409490293
21 -0.000030273768179
22 0.002398043074903
23 0.000178576944704
24  0.000000000000000
25 -0.000063136511277
26 -0.000030273310504
27 0.002398041280281
28 -0.000089288814844
29 -0.000154652904691
30 -0.000063136691390
31 -0.000030273310504
32 0.002398041280280
33 -0.000089288814844
34 0.000154652904692
35 -0.000063136691390
 Sym=      2.1
 Ene=      -0.9423
 Spin= Alpha
 Occup=    2.000000
1 -0.19484991665189
2 0.36483659055197
3 0.34758180391457
4 0.000000061787904
5  0.000000000000000
6 0.000000072082061
7 0.000000000077397
8 0.000000000000007
9 0.000000014975206
10 -0.001106444420013
11 -0.001106464397333
12 -0.001106449235941
13  0.000000000000000
14 -0.000000003029635
15 -0.000000000000001
16 0.13749191845846
17 0.044817232536470
18 0.000000001656344
19  0.000000000000000
20 -0.013272441265975
21 0.13749191886623
22 0.044817233945028
23 -0.012513376094367
24  0.000000000000000
25 0.004424149058529
26 0.13749179474122
27 0.044817213017020
28 0.006256690869220
29 0.010836897198909
30 0.004424144953883
31 0.13749179474122
32 0.044817213017006
33 0.006256690869220
34 -0.010836897198909
35 0.004424144953883
 Sym=      3.1
 Ene=      -0.5434
 Spin= Alpha
 Occup=    2.000000
1 -0.000000008637567
2 0.000000035321886
3 -0.000000048741942
4 0.39388385472196
5 0.000000000054175
6 -0.16953627011469
7 0.19575193103516
8 0.000000000026924
9 -0.084255916573602
10 0.025317356241512
11 -0.013502404123151
12 -0.011814962154630
13 -0.000000000003083
14 -0.015848102800341
15 -0.000000000002180
16 -0.11635505828024
17 -0.10254582548967
18 0.006379328734155
19 0.000000000000877
20 0.004968958821074
21 0.29365262080097
22 0.25880135892888
23 -0.011977386136996
24 0.000000000000877
25 0.003744276368532
26 -0.088648814531856
27 -0.078127815315977
28 0.003608528949969
29 -0.004799154247534
30 -0.004705047698345
31 -0.088648814471139
32 -0.078127815262465
33 0.003608528951866
34 0.004799154246002
35 -0.004705047697004
 Sym=      4.1
 Ene=      -0.5434
 Spin= Alpha
 Occup=    2.000000
1 0.000000016353067
2 -0.000000014300650
3 -0.000000124731317
4 0.16953621852558
5 -0.000000000378828
6 0.39388384644759
7 0.084255940793050
8 -0.000000000188269
9 0.19575196005562
10 -0.005370436655952
11 -0.022079297017625
12 0.027449721777441
13 0.000000000021556
14 -0.006821366103667
15 0.000000000015242
16 0.27032790321768
17 0.23824492468600
18 0.002745803460598
19 -0.000000000006135
20 -0.011544392787453
21 0.019591236058061
22 0.017266096846176
23 0.001521119895900
24 -0.000000000006135
25 0.006812321283939
26 -0.14495961074454
27 -0.12775559170767
28 -0.001785034902401
29 -0.007847633805198
30 0.003175544266198
31 -0.14495961116911
32 -0.12775559208185
33 -0.001785034915671
34 0.007847633815912
35 0.003175544256814
 Sym=      5.1
 Ene=      -0.5434
 Spin= Alpha
 Occup=    2.000000
1 0.000000000000000
2 -0.000000000000003
3 0.000000000000002
4 0.000000000100010
5 0.42882043167991
6 0.000000000369383
7 0.000000000049708
8 0.21311481212245
9 0.000000000183573
10 -0.000000000007941
11 -0.000000000017799
12 0.000000000025743
13 -0.024400556596489
14 -0.000000000004024
15 -0.017253782916632
16 0.000000000253513
17 0.000000000223427
18 0.000000000001620
19 0.006945162923415
20 -0.000000000010826
21 -0.000000000019792
22 -0.000000000017451
23 0.000000000002858